172
Lattice="16.764595686 0.0 0.0 0.0 17.940266988 0.0 0.0 0.0 30.023266671" Properties=species:S:1:pos:R:3:forces:R:3 energy=-788.65959461 stress="0.0097769807626942 0.0013691936154358846 -0.0006123607018495323 0.0013691936154358846 0.008337563928083004 -0.0006762612722803252 -0.0006123607018495323 -0.0006762612722803252 0.004503567151290191" magmom=28.3246619 free_energy=-788.79355535 pbc="T T T"
Au      10.28874000      12.69536000       9.14424000       1.15610900       0.52485500       0.09024500
Au       3.89977000       9.28343000       9.19337000       0.11861700      -0.42764500       0.05752100
Au       8.73525000       3.46001000       8.38848000      -0.41652900       0.42067200      -0.70447900
Au       8.62260000       1.35496000       6.33072000      -1.50337300       2.10763800       0.11858100
Au       7.79065000       8.47483000       9.11039000       0.46549100       0.35225300      -0.71619400
Au       4.63441000      12.18278000       9.65054000      -0.10800700       0.49562000       0.61641500
Au       3.06735000      14.19233000       7.99661000      -0.29853300      -0.67284900       0.45440300
Au       1.45329000      16.20287000       6.91881000      -0.24507100      -0.41745700      -0.56982600
Au       8.73784000      14.76849000       8.18038000      -0.58591400       0.10512300      -0.67227600
Au       6.15126000      10.65530000       7.93572000       0.62225400      -1.33838900      -0.26862300
Au       5.80740000      14.62828000       8.35245000       0.46114000      -0.50095600      -0.33160700
Au       4.14400000      16.52510000       7.02942000       0.70639900       0.46540300      -0.67092200
Au      12.86943000      12.48132000       7.50635000       0.03325800       0.77358800       0.07212200
Au       6.99537000      16.82429000       6.91709000      -0.28340800       0.01267200      -0.12192300
Au      11.56056000      15.61531000       7.80696000       0.30901500      -1.32756800       1.56515900
Au       9.76710000      17.17071000       6.63747000       0.54829700      -1.64383600       0.21908000
Au      12.48815000      17.59167000       6.25292000       0.88726500       1.29482200       0.11884300
Au      15.16166000       7.43886000       6.46003000       0.74276200      -0.03268400       0.31918700
Au      12.90785000       7.44031000       8.18878000       0.47203800       0.62830800       0.12581100
Au      11.55770000       7.68510000      10.53922000      -1.43568300       2.44939000      -1.98319800
Au      15.27794000       5.00726000       4.85140000       0.66215800      -0.59074100      -0.00077500
Au      13.19564000       5.26375000       6.53400000      -0.43695400       0.51540500       1.30190900
Au      10.77537000       5.75756000       8.16322000       0.14938800      -0.41182700       0.79336100
Au      15.81369000       2.59707000       2.98161000       0.27026400      -0.02213100       0.22054200
Au      12.94347000       3.29354000       4.82704000       0.85604500      -1.81610800      -0.49829800
Au      10.91258000       3.42948000       6.58811000      -0.34219300      -0.51418000       0.40731400
Au       0.98721000       5.70773000       7.38617000      -0.05619600       0.15327500      -0.36525500
Au       3.53374000       6.30454000       8.56857000      -0.98104400       0.01425200       0.28250800
Au       1.02437000       3.24502000       5.58432000      -0.03581700       0.52853600      -0.26492400
Au       3.32583000       3.90544000       7.16230000       0.34733000       0.03352000      -0.41786300
Au       6.00083000       5.05996000       8.59794000       0.36820300      -0.35792700      -0.12569900
Au       1.36556000       0.92946000       4.24788000       0.02901100       0.43786700      -0.68338300
Au       3.90513000       1.51079000       5.40112000      -0.03769200      -0.08318800      -0.05094600
Au       5.96984000       2.66949000       6.92535000       0.17133700       0.42446200      -0.34157600
Au      15.09984000      17.23136000       4.71783000       0.67296400       0.20952000       0.25720800
Au      13.93044000      15.03015000       6.22583000       0.39707300      -0.50423500       0.16188300
Au      14.02085000       9.96807000       7.14802000       0.58082000      -0.67095000       0.06719200
Au      11.84503000      10.25510000       8.81352000      -0.74323400      -0.67043800       0.89236100
Au      15.13541000      12.13485000       5.71939000      -0.79305300       1.99849000      -0.73035500
Au       0.53229000      13.33588000       6.99555000       0.56108900       0.36396300      -0.48976900
Au       2.36120000      11.20111000       8.23822000      -0.35279300       1.02388300      -0.55422600
Au       5.58818000       7.86108000       7.53204000       0.41914200      -0.45649400      -0.43013500
Au       0.01088000      10.59546000       6.80993000       1.09650700      -1.34986100       0.40421100
Au       1.49067000       8.56092000       7.74312000       0.36903000      -0.77685500      -0.31544300
C        5.67706000       6.00390000      11.75774000       0.05307700      -0.57944800      -0.02705800
C        8.56791000       3.22814000      10.30327000       0.45230500      -0.12981100       2.83570400
C        6.18696000       8.85712000      13.08328000      -0.22528800      -0.96437000       3.20359700
C       12.65446000       6.44709000      11.30924000       1.04983900      -1.64917900       2.25652400
C       11.44457000      15.67048000       9.85770000       0.03739800      -0.10853900      -0.87777600
C        7.99934000      12.08372000      11.25237000      -1.76913100       0.61724100       2.16702800
C        4.62247000      12.48405000      11.79092000      -0.62260500       0.65828500       0.21860300
C        9.01765000       6.14477000      12.24521000       0.34999300       0.15580600       1.10349800
C        8.53834000       8.35646000      15.98723000       3.16890900       4.17113100      -0.45111600
C       10.10988000      10.05396000      12.55329000       0.34051500       0.15748700       1.47744400
O        5.95258000       5.06212000      12.39642000      -0.27287100       0.76871600      -0.34298200
O        8.65123000       3.23674000      11.48579000      -0.30364900      -0.05474600      -2.79074200
O        6.04229000       8.45983000      14.21479000       0.09894200       0.92414100      -2.70881900
O       13.32216000       5.76350000      11.96346000       0.06411100       0.08445600      -0.53209200
O       10.88575000      15.55453000      10.85795000       0.10820400       0.19638900       0.45265700
O        7.35730000      12.43076000      12.22629000       1.48891700      -0.55149700      -2.02919600
O        6.36938000       9.23797000      11.99105000      -0.00828400       0.35460800      -0.35520300
O        4.33994000      13.00299000      12.79272000       0.37915600      -0.70559300      -1.24269600
O        9.31378000       5.94413000      13.38877000      -0.56516400       0.23422300      -2.07674800
O        7.87777000       7.47988000      16.09651000      -3.05487200      -4.24719900       0.64128700
O       10.46827000       9.93918000      13.66163000      -0.21173900      -0.14235500      -0.88144800
O        8.73967000       6.40371000      11.11528000       0.29933300      -0.47190400       1.27061000
Pd       7.50359000       9.43606000       0.64634000       0.09983900      -0.02574700       0.92827400
Pd       7.77690000       9.12165000       3.41843000      -0.10224800       0.50608600      -0.28642700
Pd       8.00746000       6.97936000       1.82037000      -0.59656100      -0.51148900      -0.57729200
Pd       7.82687000       4.61354000       0.20096000       0.48445400       0.19349000       0.56467100
Pd       5.79675000      10.86502000       2.30164000       0.57826400       0.58131800      -0.69328100
Pd       4.15442000      13.07932000       1.13503000       1.36657800      -1.23060400      -0.99397800
Pd       8.77405000      11.40942000       2.38680000      -0.80749000      -0.49651500      -1.41779400
Pd       6.90954000      13.29921000       1.02035000       0.31482600      -0.53086700       0.47879500
Pd       9.71649000      13.61693000       0.94829000       0.05371500      -0.28044200       0.11493200
Pd      12.35975000       8.65349000       0.12641000      -0.63633500      -0.34994500       0.43685500
Pd      10.10125000       8.83585000       1.75185000      -0.19534600      -0.15118000      -0.24730800
Pd      10.15662000       6.41497000       0.10817000      -0.00950500       0.28095400       0.49628400
Pd       3.15289000       7.45851000       0.64530000      -0.07628900      -0.57790300       0.45103400
Pd       5.37361000       8.14143000       2.22066000       0.57221000       0.60818400      -1.70811300
Pd       5.50186000       5.94685000       0.46480000      -0.00952600       0.15867300       0.45284200
Pd      10.98863000      11.16848000       0.56203000      -0.04145500       0.03714900      -0.03268400
Pd       3.66920000      10.02083000       0.96927000      -0.09750700       0.45369500       0.13313300
Pd       7.85093000       8.82524000       6.11921000      -0.15795900       0.68268200       0.57473000
Pd       7.95586000       6.66757000       4.56534000      -0.23062600      -0.42239500      -0.60299100
Pd       8.04057000       4.36798000       2.98134000       0.03032800       0.31836000      -0.93690700
Pd       8.31084000       1.94004000       0.98862000      -0.21574600       0.67132900       0.31142200
Pd       6.10578000      10.88000000       4.91027000       0.18232800      -0.66222500       0.68622000
Pd       4.44027000      12.73323000       3.80364000       0.23517400      -0.65230500      -0.12184100
Pd       2.82625000      14.60156000       2.48469000      -1.31348400       1.41875700       0.39274600
Pd       0.90002000      16.57050000       1.46314000       0.18607900       0.09131000       0.71991500
Pd       9.20615000      11.18695000       5.09941000      -1.39619400      -0.17436200      -0.72502900
Pd       7.23064000      12.97845000       3.78704000      -0.07817600       0.56400300      -0.43276000
Pd       5.52387000      14.99840000       2.48728000      -0.10405200       0.59442400       0.11195500
Pd       3.70990000      17.09492000       1.15880000      -0.03000100      -0.01143200       1.22441400
Pd       9.97299000      13.38428000       3.66278000       0.35420500       0.72473500       0.43883500
Pd       8.26813000      15.22691000       2.47791000      -0.19309000       0.71205600      -0.16370400
Pd       6.56796000      17.31493000       1.26878000       2.77864300      -8.32167800      -6.03618300
Pd      11.18368000      15.63092000       2.20087000      -0.53500800       0.78866300       0.21354200
Pd       9.36504000      17.48879000       1.08247000      -0.14977200      -0.56317500       0.69992600
Pd      14.71036000       8.15998000       1.20868000       0.38688800      -0.56901100      -0.23848900
Pd      12.51196000       8.15906000       2.96845000      -1.28378200       0.98146800      -0.92007900
Pd      10.18178000       8.59286000       4.57973000      -0.12538500      -0.13932500      -0.69192200
Pd      12.70091000       5.98626000       1.10737000      -0.28931500       0.27628000       0.10151700
Pd      10.37914000       6.18745000       2.80653000      -0.60403200       0.62531800      -0.25245200
Pd      10.36419000       3.91344000       1.11592000       0.11045000       0.00949800       0.19257600
Pd       0.72702000       6.35050000       2.03143000       0.95939600       0.21968000      -0.60435400
Pd       3.24079000       6.96108000       3.33438000      -0.56741400       0.27052600       0.08479900
Pd       5.48286000       8.19794000       4.75981000       0.26728600      -1.07129400       0.84066900
Pd       1.01683000       4.01501000       0.11084000       0.05070400      -0.01748400       1.19405600
Pd       3.22672000       4.80048000       1.72387000      -0.23943900      -0.05871500      -0.54128200
Pd       5.58648000       5.72359000       3.15111000       0.54827800      -0.46157700       0.23150400
Pd       5.73418000       3.36928000       1.30816000       0.18206000       0.17819500       0.43955800
Pd      13.48880000      15.43433000       0.67920000      -0.06108700      -0.20683800       0.75661200
Pd      12.23679000      13.30599000       2.01961000       0.81246500      -0.83829500      -0.38702200
Pd      11.19344000      10.95712000       3.15265000       0.54690600      -0.43168000       1.03628700
Pd      14.51007000      12.98238000       0.29490000       0.21382100      -0.28409200       1.02616400
Pd      13.40626000      10.50816000       1.73073000       0.24178200       0.83527600      -0.64039500
Pd      15.62959000      10.46054000       0.01183000      -0.35654800       0.24196500       0.76620700
Pd       0.40622000      13.89940000       1.25156000      -0.35631700      -0.24883100       0.74986500
Pd       2.18058000      11.93610000       2.38518000      -0.81239200      -0.65766800       0.30745100
Pd       3.63351000       9.75926000       3.64867000       0.07752500       0.94205000      -0.38508000
Pd       1.43684000       9.00582000       2.20218000      -0.11456100      -0.07143000      -0.32212600
Pd       7.59558000      12.40630000       9.30819000       0.09690400       0.64081300       0.81969500
Pd       8.32305000       6.26910000       7.18976000      -1.05742500       0.14500900       0.91676300
Pd       8.33100000       3.93865000       5.59169000      -0.44259900       0.02935200       0.39560200
Pd       8.40273000       1.73405000       3.67875000      -0.21354000       0.52686600      -0.34737200
Pd       5.40737000       7.18468000      10.26467000       0.51222400      -0.22014700       0.31447100
Pd       4.60177000      12.35383000       6.68218000      -0.50002200       0.63193000      -0.09799200
Pd       3.10196000      14.38004000       5.24232000      -1.21444900       0.13082800       0.52593700
Pd       1.22090000      16.27874000       4.15654000      -0.64238500      -0.25212400      -0.22752500
Pd       9.14655000      10.82728000       7.73221000      -0.50143900      -1.04073200      -0.13379800
Pd       7.25979000      12.77321000       6.47833000       1.17652100       0.15840500       0.68254300
Pd       5.76318000      14.64836000       5.35791000      -0.03910900       0.85166500       0.01956300
Pd       3.85261000      16.62961000       4.10290000       0.56484900       1.04317200      -0.32729800
Pd      10.37726000      13.15501000       6.46025000      -0.37659100       0.56131900      -0.19917600
Pd       8.51435000      15.15493000       5.24212000      -0.06765700      -0.51633200       0.06498600
Pd       6.58172000      17.06555000       4.07003000       0.72517900      -0.96710300       1.08333200
Pd      11.43758000      15.48183000       5.12848000      -0.97277200      -0.83179100      -1.00001900
Pd       9.56892000      17.33896000       3.84955000       0.27499300      -0.35536000      -0.28494100
Pd      12.52042000      17.61084000       3.61501000      -0.46661500       0.53529700      -0.83292800
Pd      14.82709000       7.62067000       3.78266000       1.20413600       0.18958200       0.41497000
Pd      12.50306000       7.93305000       5.62610000       0.44363400       0.18932300      -0.45714800
Pd      10.31119000       8.34388000       7.26494000      -0.33274200      -0.11015500       0.80122600
Pd      15.15731000       5.45337000       2.16593000      -0.79568400      -0.72498100      -0.44563700
Pd      12.68744000       5.76248000       3.90494000       0.46112800      -0.27766000      -0.51608300
Pd      10.31723000       5.90024000       5.55415000       0.89127500       0.60593000      -1.14578200
Pd      15.28005000       3.14586000       0.42288000      -0.01659700      -0.05867700       0.58989900
Pd      13.05789000       3.43824000       2.08763000      -0.15925400      -0.27451300      -0.29578800
Pd      10.52441000       3.72148000       3.82198000      -0.16670800      -0.47668600      -0.20950500
Pd      13.25764000       1.24408000       0.24147000       0.15364700       0.19903500       1.33810600
Pd      10.84957000       1.43578000       2.27782000       0.39255000       0.10349700      -0.07189300
Pd       1.03859000       5.84882000       4.59420000      -0.14152300       0.13548500      -0.16368300
Pd       3.14511000       6.68001000       5.97485000       0.97293800       0.52643500      -0.10199200
Pd       9.51888000      10.83520000      10.95163000       0.05498700      -0.62261200      -1.54456900
Pd       3.47314000       4.31477000       4.38971000      -0.36312700       0.26941300       0.44328900
Pd       5.92521000       5.43887000       5.96430000      -0.59662900      -0.05058800      -0.70723300
Pd       1.35150000       1.34881000       1.19773000       0.02625400       0.31081000       0.88415400
Pd       3.67760000       2.26134000       2.67066000      -0.52231500      -0.72798200      -0.32134800
Pd       5.88868000       3.19666000       4.09646000       0.25027000      -0.73668600       0.31759800
Pd       6.07263000       0.90971000       2.46486000      -3.29998100       9.07963300       5.51891800
Pd      14.62893000      17.43010000       1.98765000       0.27357400       0.47791900      -0.35452600
Pd      13.79617000      15.24468000       3.50382000      -0.21605500      -0.86106600      -0.89827300
Pd      12.51745000      12.99489000       4.76507000       0.47310600      -0.32908800      -0.26145400
Pd      11.48700000      10.53085000       6.10433000       0.00194100       0.03416500      -0.26480800
Pd      14.83863000      12.67723000       3.04361000       0.14829900       0.02292000      -0.42970000
Pd      13.54885000      10.41620000       4.42854000       0.48341500      -0.60231200      -0.56106400
Pd      15.89062000      10.10012000       2.64902000       0.16577100       0.31486700       0.44607300
Pd       0.65245000      13.71076000       4.02282000      -0.46986300      -0.82044400      -0.04921200
Pd       2.28997000      11.67435000       5.31517000      -0.59309100       0.06784700      -0.29367100
Pd       3.88554000       9.72355000       6.27578000      -0.35607800      -0.36853500       0.57218700
Pd       1.58873000       8.65250000       4.83347000      -0.74550900       0.03139800       0.64757100
167
Lattice="16.764595686 0.0 0.0 0.0 17.940266988 0.0 0.0 0.0 30.023266671" Properties=species:S:1:pos:R:3:forces:R:3 energy=-766.41249058 stress="0.01138650368702222 0.0002670991415330481 -0.0007498424233653629 0.0002670991415330481 0.011230309921146991 -0.00035924878226758854 -0.0007498424233653629 -0.00035924878226758854 0.00664264467589465" magmom=30.9228079 free_energy=-766.53843743 pbc="T T T"
Au      10.26938000      13.40743000       9.10832000       0.44998800      -0.43371000      -0.32381900
Au       3.87952000       9.85382000       9.22726000       0.51991500      -0.21219100       0.42188500
Au       8.55089000       4.13412000       8.74517000      -0.04610300      -0.01300000       0.12363600
Au       8.94254000       1.93894000       6.78008000      -0.02946200      -0.29873400      -0.20847100
Au       7.73620000       9.06873000       9.14308000       0.58705600      -0.13253800       0.67713000
Au       4.57598000      12.68507000       9.54808000       0.12778500      -0.04423700       0.37370500
Au       2.74744000      14.35223000       8.34942000      -0.04396400       0.54569200      -1.09549300
Au       0.91263000      16.15757000       7.05476000       0.62535200      -0.35618100      -0.68477400
Au       8.48337000      15.27435000       7.92088000       0.29627500      -0.09221500       0.12085900
Au       6.36442000      11.04159000       7.83417000      -0.92802900      -0.44858100       0.38764000
Au       5.78555000      14.99899000       8.39615000      -0.02843400      -0.19449100      -0.72086600
Au       3.93177000      16.76076000       7.11732000      -0.01738000      -0.49427800      -0.79507500
Au      12.80617000      13.05219000       7.65476000      -0.16948500       0.06473600      -0.15758300
Au      11.50178000      15.76621000       8.02213000       0.37103600      -0.25747800       0.48278500
Au      15.03222000       7.89041000       6.73344000       0.39139700      -0.09985200       0.18336800
Au      12.76524000       8.16716000       8.53121000       0.37292200       0.42366500      -0.97853300
Au      11.56974000       8.24811000      10.89593000      -0.40951600       0.73885700      -0.91084400
Au      15.37527000       5.54889000       5.15512000      -0.45066800      -0.25780100       0.15412400
Au      12.93111000       5.85973000       6.93153000       0.81035100      -0.34577200      -0.50048000
Au      10.80316000       6.15403000       8.59765000      -0.45909100      -0.33199200       0.32615300
Au      15.77755000       2.97253000       3.48545000      -0.96644600       0.09000700       0.00698800
Au      13.43486000       3.59727000       5.03252000      -0.30010400      -0.38413300       0.07862000
Au      11.17766000       3.71745000       6.82627000      -0.31844200       0.23564100       0.13796600
Au      15.79819000       0.90722000       1.55188000      -0.43986400      -0.29914700       0.03405300
Au      11.32009000       1.47135000       5.19121000      -0.27351500      -0.01322300      -0.59800500
Au       1.09284000       6.03608000       7.60639000      -0.42574600      -0.13533000      -0.37428100
Au       3.35750000       6.79730000       9.00101000       0.23367700      -0.13516500       0.13495800
Au       1.36404000       3.58220000       5.93158000       0.09566300       0.00760200      -0.33439600
Au       3.61368000       4.43170000       7.45052000       0.34504400      -0.33063000       0.02273600
Au       6.04425000       5.52066000       8.80150000      -0.21820000       0.03528000      -0.30402600
Au       1.51406000       1.13983000       4.29729000       0.13100300       1.45291000      -0.17736700
Au       3.80756000       1.99108000       5.63318000       0.53698700      -0.30166900       0.11380400
Au       6.26438000       3.20776000       7.14487000      -0.36816300      -0.12020100       0.47050800
Au       6.58812000       0.81957000       5.60267000      -0.24880800      -0.26607400      -0.26857300
Au      15.00741000      17.56738000       4.81384000       0.36047400      -0.83939000      -0.20248200
Au      13.93207000      15.29215000       6.41196000       0.22149000       0.30712800      -0.70455700
Au      13.88476000      10.47610000       7.14364000       0.10933300      -0.25227000      -0.23043700
Au      11.71795000      10.83377000       8.92347000      -0.36612100      -0.33838100       0.26014000
Au      15.22334000      12.75683000       6.07634000      -0.08436200      -0.03929100      -0.53910700
Au       2.15802000      11.66312000       8.11962000       0.10261500       0.01023200      -0.36593900
Au       5.68256000       8.26520000       7.64198000      -0.49460000      -1.09047600       0.07471600
Au       1.70437000       8.75473000       7.93031000      -0.30934200       0.25453100      -0.68385000
C        4.77569000       7.32137000      12.22986000       0.26982400      -0.63403000      -0.95190100
C        8.23724000       3.39258000      10.66490000       0.79131600       0.81408400      -3.34467000
C        6.36767000      10.05955000      13.83167000      -1.78277500      -1.17657500      -4.24616900
C       12.84906000       7.39292000      12.03626000      -0.73988500       0.20218900       0.56979000
C       12.24247000      16.50432000       9.86241000      -0.65913500       0.16310500      -0.58323600
C        7.75426000      12.20648000      11.23542000       1.17953400      -0.24599400      -2.67390500
C        4.14767000      13.16200000      11.51615000       0.08718100      -0.47313100      -0.56231800
C        8.61821000       7.28967000      12.15530000      -3.53877100       2.29627100       3.53395400
C        9.85206000       7.24435000      15.67299000      -1.44141200       0.27357900       0.66249700
C        9.69691000      10.56539000      12.55246000      -0.78705800      -0.46197700      -4.70170400
O        4.32046000       6.78258000      13.15391000       0.21935700       0.53655200      -0.41235900
O        8.12392000       3.18322000      11.76702000      -0.39240900      -0.51310200       2.56860200
O        6.37841000      10.22547000      14.96811000       0.74675200       0.65907300       2.83871900
O       13.66278000       6.90970000      12.68316000       0.62124700      -0.30149700       0.12263200
O       12.35582000      17.00766000      10.89567000       0.06375600      -0.32424800      -0.44295200
O        7.06178000      12.34516000      12.14637000      -1.30653600       0.54860300       2.49572900
O        6.14011000       9.80883000      12.68159000       0.69039000       0.75061200       1.61831700
O        3.66430000      13.34219000      12.54397000       0.04176800       0.10015400      -0.06232100
O        9.00159000       6.48967000      11.41866000       1.46280300      -1.42399300      -1.55042700
O       10.87766000       7.04483000      15.24009000       1.44303700      -0.27218800      -0.63289300
O       10.05631000      10.70397000      13.60543000       1.14507000       0.43732000       4.16682500
O        7.99685000       7.95272000      12.95836000       2.21767600      -1.27554100      -1.70622600
Pd       7.56615000       9.79805000       0.84385000       0.18299600       0.06302200       0.06030500
Pd       7.78246000       9.55815000       3.58482000       0.52900500      -0.35516800      -0.31269000
Pd       7.85700000       7.31844000       1.74886000       0.30053900      -0.64321300      -0.03363000
Pd       8.12588000       5.10693000       0.14202000      -0.17931700      -0.15521400       0.57314000
Pd       6.06753000      11.23965000       2.47845000      -0.85537500       0.71740400      -1.22055800
Pd       4.26339000      13.07197000       1.15030000      -0.14755700      -0.52358800       0.33626700
Pd       8.81144000      11.85132000       2.22646000      -0.24077500       0.13189900      -0.78672300
Pd       6.93925000      13.67705000       0.98770000       0.38258100      -0.28859800       0.51496200
Pd       9.88626000      13.97978000       0.70111000      -0.20876700      -0.02356800       0.38931800
Pd      12.12005000       8.81469000       0.28847000      -0.20539100       0.23069500       0.03995700
Pd      10.02362000       9.26452000       2.00430000      -0.92422600       0.34088700      -1.05784100
Pd      10.11456000       6.86886000       0.13490000       0.07145700       0.20789500       0.78458000
Pd       3.22497000       7.87361000       0.68956000       0.11376500      -0.72844200       0.75222400
Pd       5.54697000       8.50922000       2.28273000      -0.43766300       0.10997900      -0.88426400
Pd       5.61600000       6.11830000       0.41610000      -0.12168500       0.66928600       0.63629100
Pd      11.18869000      11.60057000       0.66011000      -0.65493800      -1.04537200      -0.37963900
Pd       3.75884000      10.39145000       0.96312000       0.04925200       0.38901900       0.51695800
Pd       7.93636000       9.30727000       6.29501000      -0.12352500      -0.08296900      -0.43522200
Pd       8.04472000       7.07885000       4.62073000       0.06684500      -0.43418900       0.04504500
Pd       8.22329000       4.73023000       3.03402000       0.15063500       0.50106900       0.15373800
Pd       8.17386000       2.47770000       1.17026000       0.43747200      -0.01648700       0.69088800
Pd       6.18885000      11.11511000       5.03806000      -0.58426000       0.20920000       0.83262100
Pd       4.22977000      12.93453000       3.89773000       0.28039600      -0.18155200       0.11365000
Pd       2.52417000      14.77581000       2.56894000      -0.27253700      -0.00341300       0.06479100
Pd       0.74060000      16.55021000       1.30537000       0.29917400       0.36998900       0.96539300
Pd       9.00454000      11.77076000       4.87257000      -0.19497800      -0.09573300       0.20900200
Pd       6.99189000      13.42330000       3.77617000       0.65937600       0.11351400      -0.38479200
Pd       5.19493000      15.16432000       2.45060000       1.11403400       0.33556900       0.02594300
Pd       3.63710000      17.00332000       1.36473000      -0.28950000       0.58085400       0.33907700
Pd      10.24831000      13.95740000       3.31792000      -0.95004000      -0.63865700       1.63877000
Pd       8.37616000      15.53757000       2.46156000      -0.89433000       0.46366800      -0.33544000
Pd       6.41978000      17.58137000       1.17616000       0.08446900      -3.04536500      -1.71263900
Pd      11.27580000      16.02489000       2.22939000       0.38617200       0.39456500      -0.07660300
Pd      14.65775000       8.25348000       1.15717000      -0.15668900      -0.01471400       0.87735800
Pd      12.36214000       8.72722000       2.89939000       0.93770200      -0.31475600       0.58970600
Pd      10.23400000       9.04718000       4.80685000      -0.66189500      -0.25146600      -0.37373700
Pd      12.56001000       6.32524000       1.22546000       0.10052600       0.01740900       0.36033300
Pd      10.32366000       6.85476000       2.99729000      -0.56911200      -0.61971800       0.04576000
Pd      10.39756000       4.39369000       1.49550000       0.20229000       0.20198000      -0.92045800
Pd       0.96957000       6.43735000       2.18419000       0.11840300       0.30788000      -0.44225500
Pd       3.24763000       7.37488000       3.41041000       0.32776500      -0.08711600       0.37879200
Pd       5.56472000       8.40858000       4.97063000      -0.31625100      -0.32293000      -0.32498700